 Output coordinates in angstroms (scale by  1.889725989 to convert to a.u.)

  No.       Tag          Charge          X              Y              Z
 ---- ---------------- ---------- -------------- -------------- --------------
    1 C                    6.0000     9.59905277    10.69809070     9.37267920
    2 C                    6.0000     9.01554494    11.73439272    10.03190005
    3 H                    1.0000     7.95299736    11.95259432    10.11873557
    4 S                   16.0000    10.17138673    12.80349944    10.80919537
    5 C                    6.0000    11.51452133    11.81748168    10.22553472
    6 C                    6.0000    12.87025611    12.04094866    10.44962417
    7 C                    6.0000    13.79193614    11.13597138     9.89673580
    8 C                    6.0000    13.31246065    10.02848982     9.13122949
    9 C                    6.0000    11.95955525     9.80482743     8.90717084
   10 C                    6.0000    11.03765409    10.70981522     9.46005607
   11 S                   16.0000    14.64846695     9.03881414     8.54472143
   12 C                    6.0000    15.83612094    10.11069187     9.32564379
   13 C                    6.0000    15.22464678    11.14799284     9.98398846
   14 C                    6.0000    17.84180843     8.75341773     8.53089645
   15 C                    6.0000    19.25277978     8.74952768     8.60631933
   16 C                    6.0000    19.77496592     9.80303568     9.33816628
   17 S                   16.0000    18.47519443    10.82046533     9.94519893
   18 C                    6.0000    17.24454923     9.80717654     9.20100726
   19 C                    6.0000    23.50703858     9.90152260     9.61023224
   20 C                    6.0000    22.26604447     9.35922819     9.17977533
   21 C                    6.0000    21.17064130    10.08353657     9.60250983
   22 S                   16.0000    21.67520852    11.48325254    10.56436778
   23 C                    6.0000    23.36390245    11.06549616    10.37898323
   24 C                    6.0000    24.49346347    11.76118834    10.90564827
   25 S                   16.0000    24.48979013    13.21730676    11.87705159
   26 C                    6.0000    26.23729407    13.20482064    11.96533610
   27 H                    1.0000    26.74623795    13.99092516    12.51801784
   28 C                    6.0000    26.78853484    12.15215596    11.29341804
   29 C                    6.0000    25.80432976    11.31487986    10.68032444
   30 C                    6.0000    25.99234498    10.12107852     9.89414476
   31 N                    7.0000    27.16069336     9.56527795     9.58787533
   32 S                   16.0000    26.81309459     8.21829406     8.66987662
   33 N                    7.0000    25.14995274     8.32926638     8.65197200
   34 C                    6.0000    24.84088274     9.41222249     9.35749227
   35 H                    1.0000     9.03708727     9.93610502     8.83315968
   36 H                    1.0000    13.21532328    12.89293896    11.03720941
   37 O                    1.0000    11.61538767     8.95257738     8.31946156
   38 H                    1.0000    15.77792017    11.91511716    10.52646721
   39 H                    1.0000    17.26834551     7.99777740     7.99496737
   40 H                    1.0000    19.87524030     7.99090213     8.13452496
   41 H                    1.0000    22.20021069     8.45749547     8.57445480
   42 H                    1.0000    27.85808033    11.96190911    11.22561739

         Total DFT energy =    -3419.424724614816

                       DFT Final Molecular Orbital Analysis
                       ------------------------------------

 Vector    1  Occ=2.000000D+00  E=-8.897334D+01

 Vector  475  Occ=0.000000D+00  E= 2.155597D+00

 Vector  476  Occ=0.000000D+00  E= 2.168046D+00

 Vector  477  Occ=0.000000D+00  E= 2.174416D+00

 Vector  478  Occ=0.000000D+00  E= 2.185554D+00

 Vector  479  Occ=0.000000D+00  E= 2.218499D+00

 Vector  480  Occ=0.000000D+00  E= 2.222307D+00

 Vector  481  Occ=0.000000D+00  E= 2.230474D+00

 Vector  482  Occ=0.000000D+00  E= 2.240038D+00

 Vector  483  Occ=0.000000D+00  E= 2.247100D+00

 Vector  484  Occ=0.000000D+00  E= 2.261434D+00

 Vector  485  Occ=0.000000D+00  E= 2.264725D+00

 Vector  486  Occ=0.000000D+00  E= 2.274113D+00

 Vector  487  Occ=0.000000D+00  E= 2.277327D+00

 Vector  488  Occ=0.000000D+00  E= 2.291800D+00

 Vector  489  Occ=0.000000D+00  E= 2.293838D+00

 Vector  490  Occ=0.000000D+00  E= 2.301435D+00

 Vector  491  Occ=0.000000D+00  E= 2.316959D+00

 Vector  492  Occ=0.000000D+00  E= 2.337290D+00

 Vector  493  Occ=0.000000D+00  E= 2.354671D+00

 Vector  494  Occ=0.000000D+00  E= 2.373862D+00

 Vector  495  Occ=0.000000D+00  E= 2.379781D+00

 Vector  496  Occ=0.000000D+00  E= 2.389621D+00

 Vector  497  Occ=0.000000D+00  E= 2.394083D+00

 Vector  498  Occ=0.000000D+00  E= 2.404255D+00

 Vector  499  Occ=0.000000D+00  E= 2.409604D+00

 Vector  500  Occ=0.000000D+00  E= 2.416423D+00

 Vector  501  Occ=0.000000D+00  E= 2.432013D+00

 Vector  502  Occ=0.000000D+00  E= 2.438334D+00

 Vector  503  Occ=0.000000D+00  E= 2.440497D+00

 Vector  504  Occ=0.000000D+00  E= 2.441295D+00

 Vector  505  Occ=0.000000D+00  E= 2.454268D+00

 Vector  506  Occ=0.000000D+00  E= 2.474894D+00

 Vector  507  Occ=0.000000D+00  E= 2.495315D+00

 Vector  508  Occ=0.000000D+00  E= 2.502557D+00

 Vector  509  Occ=0.000000D+00  E= 2.516178D+00

 Vector  510  Occ=0.000000D+00  E= 2.523227D+00

 Vector  511  Occ=0.000000D+00  E= 2.534595D+00

 Vector  512  Occ=0.000000D+00  E= 2.543844D+00

 Vector  513  Occ=0.000000D+00  E= 2.555155D+00

 Vector  514  Occ=0.000000D+00  E= 2.563660D+00

 Vector  515  Occ=0.000000D+00  E= 2.574030D+00

 Vector  516  Occ=0.000000D+00  E= 2.592565D+00

 Vector  517  Occ=0.000000D+00  E= 2.609663D+00

 Vector  518  Occ=0.000000D+00  E= 2.615066D+00

 Vector  519  Occ=0.000000D+00  E= 2.631546D+00

 Vector  520  Occ=0.000000D+00  E= 2.648316D+00

 Vector  521  Occ=0.000000D+00  E= 2.660856D+00

 Vector  522  Occ=0.000000D+00  E= 2.666720D+00

 Vector  523  Occ=0.000000D+00  E= 2.678503D+00

 Vector  524  Occ=0.000000D+00  E= 2.701596D+00

 Vector  525  Occ=0.000000D+00  E= 2.705075D+00

 Vector  526  Occ=0.000000D+00  E= 2.731550D+00

 Vector  527  Occ=0.000000D+00  E= 2.752499D+00

 Vector  528  Occ=0.000000D+00  E= 2.761309D+00

 Vector  529  Occ=0.000000D+00  E= 2.772779D+00

 Vector  530  Occ=0.000000D+00  E= 2.777985D+00

 Vector  531  Occ=0.000000D+00  E= 2.783927D+00

 Vector  532  Occ=0.000000D+00  E= 2.828155D+00

 Vector  533  Occ=0.000000D+00  E= 2.869059D+00

 Vector  534  Occ=0.000000D+00  E= 2.884484D+00

 Vector  535  Occ=0.000000D+00  E= 2.905808D+00

 Vector  536  Occ=0.000000D+00  E= 2.955884D+00

 Vector  537  Occ=0.000000D+00  E= 2.966895D+00

 Vector  538  Occ=0.000000D+00  E= 3.005844D+00

 Vector  539  Occ=0.000000D+00  E= 3.037104D+00

 Vector  540  Occ=0.000000D+00  E= 3.108541D+00

 Vector  541  Occ=0.000000D+00  E= 3.134146D+00

 Vector  542  Occ=0.000000D+00  E= 3.157076D+00

 Vector  543  Occ=0.000000D+00  E= 3.191265D+00

 Vector  544  Occ=0.000000D+00  E= 3.228896D+00

 Vector  545  Occ=0.000000D+00  E= 3.260516D+00

 Vector  546  Occ=0.000000D+00  E= 3.366715D+00

 Vector  547  Occ=0.000000D+00  E= 3.463675D+00

 Vector  548  Occ=0.000000D+00  E= 3.521154D+00

 Vector  549  Occ=0.000000D+00  E= 3.590713D+00

 Vector  550  Occ=0.000000D+00  E= 3.762565D+00

 Vector  551  Occ=0.000000D+00  E= 3.949833D+00

 Vector  552  Occ=0.000000D+00  E= 4.025369D+00

 Vector  553  Occ=0.000000D+00  E= 4.241170D+00

 Vector  554  Occ=0.000000D+00  E= 4.763953D+00

     Multipole analysis of the density
     ---------------------------------

     L   x y z        total         alpha         beta         nuclear
     -   - - -        -----         -----         ----         -------
     0   0 0 0      0.000000   -132.000000   -132.000000    264.000000

     1   1 0 0     -0.407115  -4776.045299  -4776.045299   9551.683483
     1   0 1 0      0.185289  -2653.955890  -2653.955890   5308.097069
     1   0 0 1      0.101125  -2459.901219  -2459.901219   4919.903563

     2   2 0 0   -175.840873-189289.366773-189289.366773 378402.892673
     2   1 1 0      6.348796 -95383.272203 -95383.272203 190772.893201
     2   1 0 1      2.746710 -89482.359801 -89482.359801 178967.466313
     2   0 2 0   -152.089748 -54504.915608 -54504.915608 108857.741467
     2   0 1 1     14.633584 -50129.132010 -50129.132010 100272.897605

 Total times  cpu:     2501.5s     wall:     2433.4s
